+ 0.2 1 2 cbr 500 ------- 0 1.0 4.0 0 0
- 0.2 1 2 cbr 500 ------- 0 1.0 4.0 0 0
+ 0.201 1 2 cbr 500 ------- 0 1.0 4.0 1 1
+ 0.202 1 2 cbr 500 ------- 0 1.0 4.0 2 2
d 0.202 1 2 cbr 500 ------- 0 1.0 4.0 2 2
+ 0.203 1 2 cbr 500 ------- 0 1.0 4.0 3 3
d 0.203 1 2 cbr 500 ------- 0 1.0 4.0 3 3
+ 0.204 1 2 cbr 500 ------- 0 1.0 4.0 4 4
d 0.204 1 2 cbr 500 ------- 0 1.0 4.0 4 4
+ 0.205 1 2 cbr 500 ------- 0 1.0 4.0 5 5
d 0.205 1 2 cbr 500 ------- 0 1.0 4.0 5 5
+ 0.206 1 2 cbr 500 ------- 0 1.0 4.0 6 6
d 0.206 1 2 cbr 500 ------- 0 1.0 4.0 6 6
+ 0.207 1 2 cbr 500 ------- 0 1.0 4.0 7 7
d 0.207 1 2 cbr 500 ------- 0 1.0 4.0 7 7
+ 0.208 1 2 cbr 500 ------- 0 1.0 4.0 8 8
d 0.208 1 2 cbr 500 ------- 0 1.0 4.0 8 8
+ 0.209 1 2 cbr 500 ------- 0 1.0 4.0 9 9
d 0.209 1 2 cbr 500 ------- 0 1.0 4.0 9 9
+ 0.21 1 2 cbr 500 ------- 0 1.0 4.0 10 10
d 0.21 1 2 cbr 500 ------- 0 1.0 4.0 10 10
+ 0.211 1 2 cbr 500 ------- 0 1.0 4.0 11 11
d 0.211 1 2 cbr 500 ------- 0 1.0 4.0 11 11
+ 0.212 1 2 cbr 500 ------- 0 1.0 4.0 12 12
d 0.212 1 2 cbr 500 ------- 0 1.0 4.0 12 12
+ 0.213 1 2 cbr 500 ------- 0 1.0 4.0 13 13
d 0.213 1 2 cbr 500 ------- 0 1.0 4.0 13 13
+ 0.214 1 2 cbr 500 ------- 0 1.0 4.0 14 14
d 0.214 1 2 cbr 500 ------- 0 1.0 4.0 14 14
+ 0.215 1 2 cbr 500 ------- 0 1.0 4.0 15 15
d 0.215 1 2 cbr 500 ------- 0 1.0 4.0 15 15
+ 0.216 1 2 cbr 500 ------- 0 1.0 4.0 16 16
d 0.216 1 2 cbr 500 ------- 0 1.0 4.0 16 16
+ 0.217 1 2 cbr 500 ------- 0 1.0 4.0 17 17
d 0.217 1 2 cbr 500 ------- 0 1.0 4.0 17 17
+ 0.218 1 2 cbr 500 ------- 0 1.0 4.0 18 18
d 0.218 1 2 cbr 500 ------- 0 1.0 4.0 18 18
+ 0.219 1 2 cbr 500 ------- 0 1.0 4.0 19 19
d 0.219 1 2 cbr 500 ------- 0 1.0 4.0 19 19
+ 0.22 1 2 cbr 500 ------- 0 1.0 4.0 20 20
d 0.22 1 2 cbr 500 ------- 0 1.0 4.0 20 20
+ 0.221 1 2 cbr 500 ------- 0 1.0 4.0 21 21
d 0.221 1 2 cbr 500 ------- 0 1.0 4.0 21 21
+ 0.222 1 2 cbr 500 ------- 0 1.0 4.0 22 22
d 0.222 1 2 cbr 500 ------- 0 1.0 4.0 22 22
+ 0.223 1 2 cbr 500 ------- 0 1.0 4.0 23 23
d 0.223 1 2 cbr 500 ------- 0 1.0 4.0 23 23
+ 0.224 1 2 cbr 500 ------- 0 1.0 4.0 24 24
d 0.224 1 2 cbr 500 ------- 0 1.0 4.0 24 24
+ 0.225 1 2 cbr 500 ------- 0 1.0 4.0 25 25
d 0.225 1 2 cbr 500 ------- 0 1.0 4.0 25 25
+ 0.226 1 2 cbr 500 ------- 0 1.0 4.0 26 26
d 0.226 1 2 cbr 500 ------- 0 1.0 4.0 26 26
- 0.226667 1 2 cbr 500 ------- 0 1.0 4.0 1 1
+ 0.227 1 2 cbr 500 ------- 0 1.0 4.0 27 27
+ 0.228 1 2 cbr 500 ------- 0 1.0 4.0 28 28
d 0.228 1 2 cbr 500 ------- 0 1.0 4.0 28 28
+ 0.229 1 2 cbr 500 ------- 0 1.0 4.0 29 29
d 0.229 1 2 cbr 500 ------- 0 1.0 4.0 29 29
+ 0.23 1 2 cbr 500 ------- 0 1.0 4.0 30 30
d 0.23 1 2 cbr 500 ------- 0 1.0 4.0 30 30
+ 0.231 1 2 cbr 500 ------- 0 1.0 4.0 31 31
d 0.231 1 2 cbr 500 ------- 0 1.0 4.0 31 31
r 0.231667 1 2 cbr 500 ------- 0 1.0 4.0 0 0
+ 0.231667 2 3 cbr 500 ------- 0 1.0 4.0 0 0
- 0.231667 2 3 cbr 500 ------- 0 1.0 4.0 0 0
+ 0.232 1 2 cbr 500 ------- 0 1.0 4.0 32 32
d 0.232 1 2 cbr 500 ------- 0 1.0 4.0 32 32
+ 0.233 1 2 cbr 500 ------- 0 1.0 4.0 33 33
d 0.233 1 2 cbr 500 ------- 0 1.0 4.0 33 33
+ 0.234 1 2 cbr 500 ------- 0 1.0 4.0 34 34
d 0.234 1 2 cbr 500 ------- 0 1.0 4.0 34 34
+ 0.235 1 2 cbr 500 ------- 0 1.0 4.0 35 35
d 0.235 1 2 cbr 500 ------- 0 1.0 4.0 35 35
+ 0.236 1 2 cbr 500 ------- 0 1.0 4.0 36 36
d 0.236 1 2 cbr 500 ------- 0 1.0 4.0 36 36
+ 0.237 1 2 cbr 500 ------- 0 1.0 4.0 37 37
d 0.237 1 2 cbr 500 ------- 0 1.0 4.0 37 37
+ 0.238 1 2 cbr 500 ------- 0 1.0 4.0 38 38
d 0.238 1 2 cbr 500 ------- 0 1.0 4.0 38 38
+ 0.239 1 2 cbr 500 ------- 0 1.0 4.0 39 39
d 0.239 1 2 cbr 500 ------- 0 1.0 4.0 39 39
+ 0.24 1 2 cbr 500 ------- 0 1.0 4.0 40 40
d 0.24 1 2 cbr 500 ------- 0 1.0 4.0 40 40
+ 0.241 1 2 cbr 500 ------- 0 1.0 4.0 41 41
d 0.241 1 2 cbr 500 ------- 0 1.0 4.0 41 41
+ 0.242 1 2 cbr 500 ------- 0 1.0 4.0 42 42
d 0.242 1 2 cbr 500 ------- 0 1.0 4.0 42 42
+ 0.243 1 2 cbr 500 ------- 0 1.0 4.0 43 43
d 0.243 1 2 cbr 500 ------- 0 1.0 4.0 43 43
+ 0.244 1 2 cbr 500 ------- 0 1.0 4.0 44 44
d 0.244 1 2 cbr 500 ------- 0 1.0 4.0 44 44
+ 0.245 1 2 cbr 500 ------- 0 1.0 4.0 45 45
d 0.245 1 2 cbr 500 ------- 0 1.0 4.0 45 45
+ 0.246 1 2 cbr 500 ------- 0 1.0 4.0 46 46
d 0.246 1 2 cbr 500 ------- 0 1.0 4.0 46 46
+ 0.247 1 2 cbr 500 ------- 0 1.0 4.0 47 47
d 0.247 1 2 cbr 500 ------- 0 1.0 4.0 47 47
+ 0.248 1 2 cbr 500 ------- 0 1.0 4.0 48 48
d 0.248 1 2 cbr 500 ------- 0 1.0 4.0 48 48
+ 0.249 1 2 cbr 500 ------- 0 1.0 4.0 49 49
d 0.249 1 2 cbr 500 ------- 0 1.0 4.0 49 49
+ 0.25 1 2 cbr 500 ------- 0 1.0 4.0 50 50
d 0.25 1 2 cbr 500 ------- 0 1.0 4.0 50 50
+ 0.251 1 2 cbr 500 ------- 0 1.0 4.0 51 51
d 0.251 1 2 cbr 500 ------- 0 1.0 4.0 51 51
+ 0.252 1 2 cbr 500 ------- 0 1.0 4.0 52 52
d 0.252 1 2 cbr 500 ------- 0 1.0 4.0 52 52
+ 0.253 1 2 cbr 500 ------- 0 1.0 4.0 53 53
d 0.253 1 2 cbr 500 ------- 0 1.0 4.0 53 53
- 0.253333 1 2 cbr 500 ------- 0 1.0 4.0 27 27
+ 0.254 1 2 cbr 500 ------- 0 1.0 4.0 54 54
+ 0.255 1 2 cbr 500 ------- 0 1.0 4.0 55 55
d 0.255 1 2 cbr 500 ------- 0 1.0 4.0 55 55
+ 0.256 1 2 cbr 500 ------- 0 1.0 4.0 56 56
d 0.256 1 2 cbr 500 ------- 0 1.0 4.0 56 56
+ 0.257 1 2 cbr 500 ------- 0 1.0 4.0 57 57
d 0.257 1 2 cbr 500 ------- 0 1.0 4.0 57 57
+ 0.258 1 2 cbr 500 ------- 0 1.0 4.0 58 58
d 0.258 1 2 cbr 500 ------- 0 1.0 4.0 58 58
r 0.258333 1 2 cbr 500 ------- 0 1.0 4.0 1 1
+ 0.258333 2 3 cbr 500 ------- 0 1.0 4.0 1 1
+ 0.259 1 2 cbr 500 ------- 0 1.0 4.0 59 59
d 0.259 1 2 cbr 500 ------- 0 1.0 4.0 59 59
+ 0.26 1 2 cbr 500 ------- 0 1.0 4.0 60 60
d 0.26 1 2 cbr 500 ------- 0 1.0 4.0 60 60
+ 0.261 1 2 cbr 500 ------- 0 1.0 4.0 61 61
d 0.261 1 2 cbr 500 ------- 0 1.0 4.0 61 61
+ 0.262 1 2 cbr 500 ------- 0 1.0 4.0 62 62
d 0.262 1 2 cbr 500 ------- 0 1.0 4.0 62 62
+ 0.263 1 2 cbr 500 ------- 0 1.0 4.0 63 63
d 0.263 1 2 cbr 500 ------- 0 1.0 4.0 63 63
+ 0.264 1 2 cbr 500 ------- 0 1.0 4.0 64 64
d 0.264 1 2 cbr 500 ------- 0 1.0 4.0 64 64
+ 0.265 1 2 cbr 500 ------- 0 1.0 4.0 65 65
d 0.265 1 2 cbr 500 ------- 0 1.0 4.0 65 65
+ 0.266 1 2 cbr 500 ------- 0 1.0 4.0 66 66
d 0.266 1 2 cbr 500 ------- 0 1.0 4.0 66 66
+ 0.267 1 2 cbr 500 ------- 0 1.0 4.0 67 67
d 0.267 1 2 cbr 500 ------- 0 1.0 4.0 67 67
+ 0.268 1 2 cbr 500 ------- 0 1.0 4.0 68 68
d 0.268 1 2 cbr 500 ------- 0 1.0 4.0 68 68
+ 0.269 1 2 cbr 500 ------- 0 1.0 4.0 69 69
d 0.269 1 2 cbr 500 ------- 0 1.0 4.0 69 69
+ 0.27 1 2 cbr 500 ------- 0 1.0 4.0 70 70
d 0.27 1 2 cbr 500 ------- 0 1.0 4.0 70 70
+ 0.271 1 2 cbr 500 ------- 0 1.0 4.0 71 71
d 0.271 1 2 cbr 500 ------- 0 1.0 4.0 71 71
- 0.271667 2 3 cbr 500 ------- 0 1.0 4.0 1 1
+ 0.272 1 2 cbr 500 ------- 0 1.0 4.0 72 72
d 0.272 1 2 cbr 500 ------- 0 1.0 4.0 72 72
+ 0.273 1 2 cbr 500 ------- 0 1.0 4.0 73 73
d 0.273 1 2 cbr 500 ------- 0 1.0 4.0 73 73
+ 0.274 1 2 cbr 500 ------- 0 1.0 4.0 74 74
d 0.274 1 2 cbr 500 ------- 0 1.0 4.0 74 74
+ 0.275 1 2 cbr 500 ------- 0 1.0 4.0 75 75
d 0.275 1 2 cbr 500 ------- 0 1.0 4.0 75 75
+ 0.276 1 2 cbr 500 ------- 0 1.0 4.0 76 76
d 0.276 1 2 cbr 500 ------- 0 1.0 4.0 76 76
r 0.276667 2 3 cbr 500 ------- 0 1.0 4.0 0 0
+ 0.276667 3 4 cbr 500 ------- 0 1.0 4.0 0 0
- 0.276667 3 4 cbr 500 ------- 0 1.0 4.0 0 0
+ 0.277 1 2 cbr 500 ------- 0 1.0 4.0 77 77
d 0.277 1 2 cbr 500 ------- 0 1.0 4.0 77 77
+ 0.278 1 2 cbr 500 ------- 0 1.0 4.0 78 78
d 0.278 1 2 cbr 500 ------- 0 1.0 4.0 78 78
+ 0.279 1 2 cbr 500 ------- 0 1.0 4.0 79 79
d 0.279 1 2 cbr 500 ------- 0 1.0 4.0 79 79
- 0.28 1 2 cbr 500 ------- 0 1.0 4.0 54 54
+ 0.28 1 2 cbr 500 ------- 0 1.0 4.0 80 80
+ 0.281 1 2 cbr 500 ------- 0 1.0 4.0 81 81
d 0.281 1 2 cbr 500 ------- 0 1.0 4.0 81 81
+ 0.282 1 2 cbr 500 ------- 0 1.0 4.0 82 82
d 0.282 1 2 cbr 500 ------- 0 1.0 4.0 82 82
+ 0.283 1 2 cbr 500 ------- 0 1.0 4.0 83 83
d 0.283 1 2 cbr 500 ------- 0 1.0 4.0 83 83
+ 0.284 1 2 cbr 500 ------- 0 1.0 4.0 84 84
d 0.284 1 2 cbr 500 ------- 0 1.0 4.0 84 84
r 0.285 1 2 cbr 500 ------- 0 1.0 4.0 27 27
+ 0.285 2 3 cbr 500 ------- 0 1.0 4.0 27 27
+ 0.285 1 2 cbr 500 ------- 0 1.0 4.0 85 85
d 0.285 1 2 cbr 500 ------- 0 1.0 4.0 85 85
+ 0.286 1 2 cbr 500 ------- 0 1.0 4.0 86 86
d 0.286 1 2 cbr 500 ------- 0 1.0 4.0 86 86
+ 0.287 1 2 cbr 500 ------- 0 1.0 4.0 87 87
d 0.287 1 2 cbr 500 ------- 0 1.0 4.0 87 87
+ 0.288 1 2 cbr 500 ------- 0 1.0 4.0 88 88
d 0.288 1 2 cbr 500 ------- 0 1.0 4.0 88 88
+ 0.289 1 2 cbr 500 ------- 0 1.0 4.0 89 89
d 0.289 1 2 cbr 500 ------- 0 1.0 4.0 89 89
+ 0.29 1 2 cbr 500 ------- 0 1.0 4.0 90 90
d 0.29 1 2 cbr 500 ------- 0 1.0 4.0 90 90
+ 0.291 1 2 cbr 500 ------- 0 1.0 4.0 91 91
d 0.291 1 2 cbr 500 ------- 0 1.0 4.0 91 91
+ 0.292 1 2 cbr 500 ------- 0 1.0 4.0 92 92
d 0.292 1 2 cbr 500 ------- 0 1.0 4.0 92 92
+ 0.293 1 2 cbr 500 ------- 0 1.0 4.0 93 93
d 0.293 1 2 cbr 500 ------- 0 1.0 4.0 93 93
+ 0.294 1 2 cbr 500 ------- 0 1.0 4.0 94 94
d 0.294 1 2 cbr 500 ------- 0 1.0 4.0 94 94
+ 0.295 1 2 cbr 500 ------- 0 1.0 4.0 95 95
d 0.295 1 2 cbr 500 ------- 0 1.0 4.0 95 95
+ 0.296 1 2 cbr 500 ------- 0 1.0 4.0 96 96
d 0.296 1 2 cbr 500 ------- 0 1.0 4.0 96 96
+ 0.297 1 2 cbr 500 ------- 0 1.0 4.0 97 97
d 0.297 1 2 cbr 500 ------- 0 1.0 4.0 97 97
+ 0.298 1 2 cbr 500 ------- 0 1.0 4.0 98 98
d 0.298 1 2 cbr 500 ------- 0 1.0 4.0 98 98
+ 0.299 1 2 cbr 500 ------- 0 1.0 4.0 99 99
d 0.299 1 2 cbr 500 ------- 0 1.0 4.0 99 99
+ 0.3 1 2 cbr 500 ------- 0 1.0 4.0 100 100
d 0.3 1 2 cbr 500 ------- 0 1.0 4.0 100 100
+ 0.301 1 2 cbr 500 ------- 0 1.0 4.0 101 101
d 0.301 1 2 cbr 500 ------- 0 1.0 4.0 101 101
+ 0.302 1 2 cbr 500 ------- 0 1.0 4.0 102 102
d 0.302 1 2 cbr 500 ------- 0 1.0 4.0 102 102
+ 0.303 1 2 cbr 500 ------- 0 1.0 4.0 103 103
d 0.303 1 2 cbr 500 ------- 0 1.0 4.0 103 103
+ 0.304 1 2 cbr 500 ------- 0 1.0 4.0 104 104
d 0.304 1 2 cbr 500 ------- 0 1.0 4.0 104 104
+ 0.305 1 2 cbr 500 ------- 0 1.0 4.0 105 105
d 0.305 1 2 cbr 500 ------- 0 1.0 4.0 105 105
+ 0.306 1 2 cbr 500 ------- 0 1.0 4.0 106 106
d 0.306 1 2 cbr 500 ------- 0 1.0 4.0 106 106
- 0.306667 1 2 cbr 500 ------- 0 1.0 4.0 80 80
+ 0.307 1 2 cbr 500 ------- 0 1.0 4.0 107 107
+ 0.308 1 2 cbr 500 ------- 0 1.0 4.0 108 108
d 0.308 1 2 cbr 500 ------- 0 1.0 4.0 108 108
+ 0.309 1 2 cbr 500 ------- 0 1.0 4.0 109 109
d 0.309 1 2 cbr 500 ------- 0 1.0 4.0 109 109
+ 0.31 1 2 cbr 500 ------- 0 1.0 4.0 110 110
d 0.31 1 2 cbr 500 ------- 0 1.0 4.0 110 110
+ 0.311 1 2 cbr 500 ------- 0 1.0 4.0 111 111
d 0.311 1 2 cbr 500 ------- 0 1.0 4.0 111 111
- 0.311667 2 3 cbr 500 ------- 0 1.0 4.0 27 27
r 0.311667 1 2 cbr 500 ------- 0 1.0 4.0 54 54
+ 0.311667 2 3 cbr 500 ------- 0 1.0 4.0 54 54
+ 0.312 1 2 cbr 500 ------- 0 1.0 4.0 112 112
d 0.312 1 2 cbr 500 ------- 0 1.0 4.0 112 112
+ 0.313 1 2 cbr 500 ------- 0 1.0 4.0 113 113
d 0.313 1 2 cbr 500 ------- 0 1.0 4.0 113 113
+ 0.314 1 2 cbr 500 ------- 0 1.0 4.0 114 114
d 0.314 1 2 cbr 500 ------- 0 1.0 4.0 114 114
r 0.315 3 4 cbr 500 ------- 0 1.0 4.0 0 0
+ 0.315 1 2 cbr 500 ------- 0 1.0 4.0 115 115
d 0.315 1 2 cbr 500 ------- 0 1.0 4.0 115 115
+ 0.316 1 2 cbr 500 ------- 0 1.0 4.0 116 116
d 0.316 1 2 cbr 500 ------- 0 1.0 4.0 116 116
r 0.316667 2 3 cbr 500 ------- 0 1.0 4.0 1 1
+ 0.316667 3 4 cbr 500 ------- 0 1.0 4.0 1 1
- 0.316667 3 4 cbr 500 ------- 0 1.0 4.0 1 1
+ 0.317 1 2 cbr 500 ------- 0 1.0 4.0 117 117
d 0.317 1 2 cbr 500 ------- 0 1.0 4.0 117 117
+ 0.318 1 2 cbr 500 ------- 0 1.0 4.0 118 118
d 0.318 1 2 cbr 500 ------- 0 1.0 4.0 118 118
+ 0.319 1 2 cbr 500 ------- 0 1.0 4.0 119 119
d 0.319 1 2 cbr 500 ------- 0 1.0 4.0 119 119
+ 0.32 1 2 cbr 500 ------- 0 1.0 4.0 120 120
d 0.32 1 2 cbr 500 ------- 0 1.0 4.0 120 120
+ 0.321 1 2 cbr 500 ------- 0 1.0 4.0 121 121
d 0.321 1 2 cbr 500 ------- 0 1.0 4.0 121 121
+ 0.322 1 2 cbr 500 ------- 0 1.0 4.0 122 122
d 0.322 1 2 cbr 500 ------- 0 1.0 4.0 122 122
+ 0.323 1 2 cbr 500 ------- 0 1.0 4.0 123 123
d 0.323 1 2 cbr 500 ------- 0 1.0 4.0 123 123
+ 0.324 1 2 cbr 500 ------- 0 1.0 4.0 124 124
d 0.324 1 2 cbr 500 ------- 0 1.0 4.0 124 124
+ 0.325 1 2 cbr 500 ------- 0 1.0 4.0 125 125
d 0.325 1 2 cbr 500 ------- 0 1.0 4.0 125 125
+ 0.326 1 2 cbr 500 ------- 0 1.0 4.0 126 126
d 0.326 1 2 cbr 500 ------- 0 1.0 4.0 126 126
+ 0.327 1 2 cbr 500 ------- 0 1.0 4.0 127 127
d 0.327 1 2 cbr 500 ------- 0 1.0 4.0 127 127
+ 0.328 1 2 cbr 500 ------- 0 1.0 4.0 128 128
d 0.328 1 2 cbr 500 ------- 0 1.0 4.0 128 128
+ 0.329 1 2 cbr 500 ------- 0 1.0 4.0 129 129
d 0.329 1 2 cbr 500 ------- 0 1.0 4.0 129 129
+ 0.33 1 2 cbr 500 ------- 0 1.0 4.0 130 130
d 0.33 1 2 cbr 500 ------- 0 1.0 4.0 130 130
+ 0.331 1 2 cbr 500 ------- 0 1.0 4.0 131 131
d 0.331 1 2 cbr 500 ------- 0 1.0 4.0 131 131
+ 0.332 1 2 cbr 500 ------- 0 1.0 4.0 132 132
d 0.332 1 2 cbr 500 ------- 0 1.0 4.0 132 132
+ 0.333 1 2 cbr 500 ------- 0 1.0 4.0 133 133
d 0.333 1 2 cbr 500 ------- 0 1.0 4.0 133 133
- 0.333333 1 2 cbr 500 ------- 0 1.0 4.0 107 107
+ 0.334 1 2 cbr 500 ------- 0 1.0 4.0 134 134
+ 0.335 1 2 cbr 500 ------- 0 1.0 4.0 135 135
d 0.335 1 2 cbr 500 ------- 0 1.0 4.0 135 135
+ 0.336 1 2 cbr 500 ------- 0 1.0 4.0 136 136
d 0.336 1 2 cbr 500 ------- 0 1.0 4.0 136 136
+ 0.337 1 2 cbr 500 ------- 0 1.0 4.0 137 137
d 0.337 1 2 cbr 500 ------- 0 1.0 4.0 137 137
+ 0.338 1 2 cbr 500 ------- 0 1.0 4.0 138 138
d 0.338 1 2 cbr 500 ------- 0 1.0 4.0 138 138
r 0.338333 1 2 cbr 500 ------- 0 1.0 4.0 80 80
+ 0.338333 2 3 cbr 500 ------- 0 1.0 4.0 80 80
d 0.338333 2 3 cbr 500 ------- 0 1.0 4.0 80 80
+ 0.339 1 2 cbr 500 ------- 0 1.0 4.0 139 139
d 0.339 1 2 cbr 500 ------- 0 1.0 4.0 139 139
+ 0.34 1 2 cbr 500 ------- 0 1.0 4.0 140 140
d 0.34 1 2 cbr 500 ------- 0 1.0 4.0 140 140
+ 0.341 1 2 cbr 500 ------- 0 1.0 4.0 141 141
d 0.341 1 2 cbr 500 ------- 0 1.0 4.0 141 141
+ 0.342 1 2 cbr 500 ------- 0 1.0 4.0 142 142
d 0.342 1 2 cbr 500 ------- 0 1.0 4.0 142 142
+ 0.343 1 2 cbr 500 ------- 0 1.0 4.0 143 143
d 0.343 1 2 cbr 500 ------- 0 1.0 4.0 143 143
+ 0.344 1 2 cbr 500 ------- 0 1.0 4.0 144 144
d 0.344 1 2 cbr 500 ------- 0 1.0 4.0 144 144
+ 0.345 1 2 cbr 500 ------- 0 1.0 4.0 145 145
d 0.345 1 2 cbr 500 ------- 0 1.0 4.0 145 145
+ 0.346 1 2 cbr 500 ------- 0 1.0 4.0 146 146
d 0.346 1 2 cbr 500 ------- 0 1.0 4.0 146 146
+ 0.347 1 2 cbr 500 ------- 0 1.0 4.0 147 147
d 0.347 1 2 cbr 500 ------- 0 1.0 4.0 147 147
+ 0.348 1 2 cbr 500 ------- 0 1.0 4.0 148 148
d 0.348 1 2 cbr 500 ------- 0 1.0 4.0 148 148
+ 0.349 1 2 cbr 500 ------- 0 1.0 4.0 149 149
d 0.349 1 2 cbr 500 ------- 0 1.0 4.0 149 149
+ 0.35 1 2 cbr 500 ------- 0 1.0 4.0 150 150
d 0.35 1 2 cbr 500 ------- 0 1.0 4.0 150 150
+ 0.351 1 2 cbr 500 ------- 0 1.0 4.0 151 151
d 0.351 1 2 cbr 500 ------- 0 1.0 4.0 151 151
- 0.351667 2 3 cbr 500 ------- 0 1.0 4.0 54 54
+ 0.352 1 2 cbr 500 ------- 0 1.0 4.0 152 152
d 0.352 1 2 cbr 500 ------- 0 1.0 4.0 152 152
+ 0.353 1 2 cbr 500 ------- 0 1.0 4.0 153 153
d 0.353 1 2 cbr 500 ------- 0 1.0 4.0 153 153
+ 0.354 1 2 cbr 500 ------- 0 1.0 4.0 154 154
d 0.354 1 2 cbr 500 ------- 0 1.0 4.0 154 154
r 0.355 3 4 cbr 500 ------- 0 1.0 4.0 1 1
+ 0.355 1 2 cbr 500 ------- 0 1.0 4.0 155 155
d 0.355 1 2 cbr 500 ------- 0 1.0 4.0 155 155
+ 0.356 1 2 cbr 500 ------- 0 1.0 4.0 156 156
d 0.356 1 2 cbr 500 ------- 0 1.0 4.0 156 156
r 0.356667 2 3 cbr 500 ------- 0 1.0 4.0 27 27
+ 0.356667 3 4 cbr 500 ------- 0 1.0 4.0 27 27
- 0.356667 3 4 cbr 500 ------- 0 1.0 4.0 27 27
+ 0.357 1 2 cbr 500 ------- 0 1.0 4.0 157 157
d 0.357 1 2 cbr 500 ------- 0 1.0 4.0 157 157
+ 0.358 1 2 cbr 500 ------- 0 1.0 4.0 158 158
d 0.358 1 2 cbr 500 ------- 0 1.0 4.0 158 158
+ 0.359 1 2 cbr 500 ------- 0 1.0 4.0 159 159
d 0.359 1 2 cbr 500 ------- 0 1.0 4.0 159 159
- 0.36 1 2 cbr 500 ------- 0 1.0 4.0 134 134
+ 0.36 1 2 cbr 500 ------- 0 1.0 4.0 160 160
+ 0.361 1 2 cbr 500 ------- 0 1.0 4.0 161 161
d 0.361 1 2 cbr 500 ------- 0 1.0 4.0 161 161
+ 0.362 1 2 cbr 500 ------- 0 1.0 4.0 162 162
d 0.362 1 2 cbr 500 ------- 0 1.0 4.0 162 162
+ 0.363 1 2 cbr 500 ------- 0 1.0 4.0 163 163
d 0.363 1 2 cbr 500 ------- 0 1.0 4.0 163 163
+ 0.364 1 2 cbr 500 ------- 0 1.0 4.0 164 164
d 0.364 1 2 cbr 500 ------- 0 1.0 4.0 164 164
r 0.365 1 2 cbr 500 ------- 0 1.0 4.0 107 107
+ 0.365 2 3 cbr 500 ------- 0 1.0 4.0 107 107
+ 0.365 1 2 cbr 500 ------- 0 1.0 4.0 165 165
d 0.365 1 2 cbr 500 ------- 0 1.0 4.0 165 165
+ 0.366 1 2 cbr 500 ------- 0 1.0 4.0 166 166
d 0.366 1 2 cbr 500 ------- 0 1.0 4.0 166 166
+ 0.367 1 2 cbr 500 ------- 0 1.0 4.0 167 167
d 0.367 1 2 cbr 500 ------- 0 1.0 4.0 167 167
+ 0.368 1 2 cbr 500 ------- 0 1.0 4.0 168 168
d 0.368 1 2 cbr 500 ------- 0 1.0 4.0 168 168
+ 0.369 1 2 cbr 500 ------- 0 1.0 4.0 169 169
d 0.369 1 2 cbr 500 ------- 0 1.0 4.0 169 169
+ 0.37 1 2 cbr 500 ------- 0 1.0 4.0 170 170
d 0.37 1 2 cbr 500 ------- 0 1.0 4.0 170 170
+ 0.371 1 2 cbr 500 ------- 0 1.0 4.0 171 171
d 0.371 1 2 cbr 500 ------- 0 1.0 4.0 171 171
+ 0.372 1 2 cbr 500 ------- 0 1.0 4.0 172 172
d 0.372 1 2 cbr 500 ------- 0 1.0 4.0 172 172
+ 0.373 1 2 cbr 500 ------- 0 1.0 4.0 173 173
d 0.373 1 2 cbr 500 ------- 0 1.0 4.0 173 173
+ 0.374 1 2 cbr 500 ------- 0 1.0 4.0 174 174
d 0.374 1 2 cbr 500 ------- 0 1.0 4.0 174 174
+ 0.375 1 2 cbr 500 ------- 0 1.0 4.0 175 175
d 0.375 1 2 cbr 500 ------- 0 1.0 4.0 175 175
+ 0.376 1 2 cbr 500 ------- 0 1.0 4.0 176 176
d 0.376 1 2 cbr 500 ------- 0 1.0 4.0 176 176
+ 0.377 1 2 cbr 500 ------- 0 1.0 4.0 177 177
d 0.377 1 2 cbr 500 ------- 0 1.0 4.0 177 177
+ 0.378 1 2 cbr 500 ------- 0 1.0 4.0 178 178
d 0.378 1 2 cbr 500 ------- 0 1.0 4.0 178 178
+ 0.379 1 2 cbr 500 ------- 0 1.0 4.0 179 179
d 0.379 1 2 cbr 500 ------- 0 1.0 4.0 179 179
+ 0.38 1 2 cbr 500 ------- 0 1.0 4.0 180 180
d 0.38 1 2 cbr 500 ------- 0 1.0 4.0 180 180
+ 0.381 1 2 cbr 500 ------- 0 1.0 4.0 181 181
d 0.381 1 2 cbr 500 ------- 0 1.0 4.0 181 181
+ 0.382 1 2 cbr 500 ------- 0 1.0 4.0 182 182
d 0.382 1 2 cbr 500 ------- 0 1.0 4.0 182 182
+ 0.383 1 2 cbr 500 ------- 0 1.0 4.0 183 183
d 0.383 1 2 cbr 500 ------- 0 1.0 4.0 183 183
+ 0.384 1 2 cbr 500 ------- 0 1.0 4.0 184 184
d 0.384 1 2 cbr 500 ------- 0 1.0 4.0 184 184
+ 0.385 1 2 cbr 500 ------- 0 1.0 4.0 185 185
d 0.385 1 2 cbr 500 ------- 0 1.0 4.0 185 185
+ 0.386 1 2 cbr 500 ------- 0 1.0 4.0 186 186
d 0.386 1 2 cbr 500 ------- 0 1.0 4.0 186 186
- 0.386667 1 2 cbr 500 ------- 0 1.0 4.0 160 160
+ 0.387 1 2 cbr 500 ------- 0 1.0 4.0 187 187
+ 0.388 1 2 cbr 500 ------- 0 1.0 4.0 188 188
d 0.388 1 2 cbr 500 ------- 0 1.0 4.0 188 188
+ 0.389 1 2 cbr 500 ------- 0 1.0 4.0 189 189
d 0.389 1 2 cbr 500 ------- 0 1.0 4.0 189 189
+ 0.39 1 2 cbr 500 ------- 0 1.0 4.0 190 190
d 0.39 1 2 cbr 500 ------- 0 1.0 4.0 190 190
+ 0.391 1 2 cbr 500 ------- 0 1.0 4.0 191 191
d 0.391 1 2 cbr 500 ------- 0 1.0 4.0 191 191
- 0.391667 2 3 cbr 500 ------- 0 1.0 4.0 107 107
r 0.391667 1 2 cbr 500 ------- 0 1.0 4.0 134 134
+ 0.391667 2 3 cbr 500 ------- 0 1.0 4.0 134 134
+ 0.392 1 2 cbr 500 ------- 0 1.0 4.0 192 192
d 0.392 1 2 cbr 500 ------- 0 1.0 4.0 192 192
+ 0.393 1 2 cbr 500 ------- 0 1.0 4.0 193 193
d 0.393 1 2 cbr 500 ------- 0 1.0 4.0 193 193
+ 0.394 1 2 cbr 500 ------- 0 1.0 4.0 194 194
d 0.394 1 2 cbr 500 ------- 0 1.0 4.0 194 194
r 0.395 3 4 cbr 500 ------- 0 1.0 4.0 27 27
+ 0.395 1 2 cbr 500 ------- 0 1.0 4.0 195 195
d 0.395 1 2 cbr 500 ------- 0 1.0 4.0 195 195
+ 0.396 1 2 cbr 500 ------- 0 1.0 4.0 196 196
d 0.396 1 2 cbr 500 ------- 0 1.0 4.0 196 196
r 0.396667 2 3 cbr 500 ------- 0 1.0 4.0 54 54
+ 0.396667 3 4 cbr 500 ------- 0 1.0 4.0 54 54
- 0.396667 3 4 cbr 500 ------- 0 1.0 4.0 54 54
+ 0.397 1 2 cbr 500 ------- 0 1.0 4.0 197 197
d 0.397 1 2 cbr 500 ------- 0 1.0 4.0 197 197
+ 0.398 1 2 cbr 500 ------- 0 1.0 4.0 198 198
d 0.398 1 2 cbr 500 ------- 0 1.0 4.0 198 198
+ 0.399 1 2 cbr 500 ------- 0 1.0 4.0 199 199
d 0.399 1 2 cbr 500 ------- 0 1.0 4.0 199 199
+ 0.4 1 2 cbr 500 ------- 0 1.0 4.0 200 200
d 0.4 1 2 cbr 500 ------- 0 1.0 4.0 200 200
+ 0.401 1 2 cbr 500 ------- 0 1.0 4.0 201 201
d 0.401 1 2 cbr 500 ------- 0 1.0 4.0 201 201
+ 0.402 1 2 cbr 500 ------- 0 1.0 4.0 202 202
d 0.402 1 2 cbr 500 ------- 0 1.0 4.0 202 202
+ 0.403 1 2 cbr 500 ------- 0 1.0 4.0 203 203
d 0.403 1 2 cbr 500 ------- 0 1.0 4.0 203 203
+ 0.404 1 2 cbr 500 ------- 0 1.0 4.0 204 204
d 0.404 1 2 cbr 500 ------- 0 1.0 4.0 204 204
+ 0.405 1 2 cbr 500 ------- 0 1.0 4.0 205 205
d 0.405 1 2 cbr 500 ------- 0 1.0 4.0 205 205
+ 0.406 1 2 cbr 500 ------- 0 1.0 4.0 206 206
d 0.406 1 2 cbr 500 ------- 0 1.0 4.0 206 206
+ 0.407 1 2 cbr 500 ------- 0 1.0 4.0 207 207
d 0.407 1 2 cbr 500 ------- 0 1.0 4.0 207 207
+ 0.408 1 2 cbr 500 ------- 0 1.0 4.0 208 208
d 0.408 1 2 cbr 500 ------- 0 1.0 4.0 208 208
+ 0.409 1 2 cbr 500 ------- 0 1.0 4.0 209 209
d 0.409 1 2 cbr 500 ------- 0 1.0 4.0 209 209
+ 0.41 1 2 cbr 500 ------- 0 1.0 4.0 210 210
d 0.41 1 2 cbr 500 ------- 0 1.0 4.0 210 210
+ 0.411 1 2 cbr 500 ------- 0 1.0 4.0 211 211
d 0.411 1 2 cbr 500 ------- 0 1.0 4.0 211 211
+ 0.412 1 2 cbr 500 ------- 0 1.0 4.0 212 212
d 0.412 1 2 cbr 500 ------- 0 1.0 4.0 212 212
+ 0.413 1 2 cbr 500 ------- 0 1.0 4.0 213 213
d 0.413 1 2 cbr 500 ------- 0 1.0 4.0 213 213
- 0.413333 1 2 cbr 500 ------- 0 1.0 4.0 187 187
+ 0.414 1 2 cbr 500 ------- 0 1.0 4.0 214 214
+ 0.415 1 2 cbr 500 ------- 0 1.0 4.0 215 215
d 0.415 1 2 cbr 500 ------- 0 1.0 4.0 215 215
+ 0.416 1 2 cbr 500 ------- 0 1.0 4.0 216 216
d 0.416 1 2 cbr 500 ------- 0 1.0 4.0 216 216
+ 0.417 1 2 cbr 500 ------- 0 1.0 4.0 217 217
d 0.417 1 2 cbr 500 ------- 0 1.0 4.0 217 217
+ 0.418 1 2 cbr 500 ------- 0 1.0 4.0 218 218
d 0.418 1 2 cbr 500 ------- 0 1.0 4.0 218 218
r 0.418333 1 2 cbr 500 ------- 0 1.0 4.0 160 160
+ 0.418333 2 3 cbr 500 ------- 0 1.0 4.0 160 160
d 0.418333 2 3 cbr 500 ------- 0 1.0 4.0 160 160
+ 0.419 1 2 cbr 500 ------- 0 1.0 4.0 219 219
d 0.419 1 2 cbr 500 ------- 0 1.0 4.0 219 219
+ 0.42 1 2 cbr 500 ------- 0 1.0 4.0 220 220
d 0.42 1 2 cbr 500 ------- 0 1.0 4.0 220 220
+ 0.421 1 2 cbr 500 ------- 0 1.0 4.0 221 221
d 0.421 1 2 cbr 500 ------- 0 1.0 4.0 221 221
+ 0.422 1 2 cbr 500 ------- 0 1.0 4.0 222 222
d 0.422 1 2 cbr 500 ------- 0 1.0 4.0 222 222
+ 0.423 1 2 cbr 500 ------- 0 1.0 4.0 223 223
d 0.423 1 2 cbr 500 ------- 0 1.0 4.0 223 223
+ 0.424 1 2 cbr 500 ------- 0 1.0 4.0 224 224
d 0.424 1 2 cbr 500 ------- 0 1.0 4.0 224 224
+ 0.425 1 2 cbr 500 ------- 0 1.0 4.0 225 225
d 0.425 1 2 cbr 500 ------- 0 1.0 4.0 225 225
+ 0.426 1 2 cbr 500 ------- 0 1.0 4.0 226 226
d 0.426 1 2 cbr 500 ------- 0 1.0 4.0 226 226
+ 0.427 1 2 cbr 500 ------- 0 1.0 4.0 227 227
d 0.427 1 2 cbr 500 ------- 0 1.0 4.0 227 227
+ 0.428 1 2 cbr 500 ------- 0 1.0 4.0 228 228
d 0.428 1 2 cbr 500 ------- 0 1.0 4.0 228 228
+ 0.429 1 2 cbr 500 ------- 0 1.0 4.0 229 229
d 0.429 1 2 cbr 500 ------- 0 1.0 4.0 229 229
+ 0.43 1 2 cbr 500 ------- 0 1.0 4.0 230 230
d 0.43 1 2 cbr 500 ------- 0 1.0 4.0 230 230
+ 0.431 1 2 cbr 500 ------- 0 1.0 4.0 231 231
d 0.431 1 2 cbr 500 ------- 0 1.0 4.0 231 231
- 0.431667 2 3 cbr 500 ------- 0 1.0 4.0 134 134
+ 0.432 1 2 cbr 500 ------- 0 1.0 4.0 232 232
d 0.432 1 2 cbr 500 ------- 0 1.0 4.0 232 232
+ 0.433 1 2 cbr 500 ------- 0 1.0 4.0 233 233
d 0.433 1 2 cbr 500 ------- 0 1.0 4.0 233 233
+ 0.434 1 2 cbr 500 ------- 0 1.0 4.0 234 234
d 0.434 1 2 cbr 500 ------- 0 1.0 4.0 234 234
r 0.435 3 4 cbr 500 ------- 0 1.0 4.0 54 54
+ 0.435 1 2 cbr 500 ------- 0 1.0 4.0 235 235
d 0.435 1 2 cbr 500 ------- 0 1.0 4.0 235 235
+ 0.436 1 2 cbr 500 ------- 0 1.0 4.0 236 236
d 0.436 1 2 cbr 500 ------- 0 1.0 4.0 236 236
r 0.436667 2 3 cbr 500 ------- 0 1.0 4.0 107 107
+ 0.436667 3 4 cbr 500 ------- 0 1.0 4.0 107 107
- 0.436667 3 4 cbr 500 ------- 0 1.0 4.0 107 107
+ 0.437 1 2 cbr 500 ------- 0 1.0 4.0 237 237
d 0.437 1 2 cbr 500 ------- 0 1.0 4.0 237 237
+ 0.438 1 2 cbr 500 ------- 0 1.0 4.0 238 238
d 0.438 1 2 cbr 500 ------- 0 1.0 4.0 238 238
+ 0.439 1 2 cbr 500 ------- 0 1.0 4.0 239 239
d 0.439 1 2 cbr 500 ------- 0 1.0 4.0 239 239
- 0.44 1 2 cbr 500 ------- 0 1.0 4.0 214 214
+ 0.44 1 2 cbr 500 ------- 0 1.0 4.0 240 240
+ 0.441 1 2 cbr 500 ------- 0 1.0 4.0 241 241
d 0.441 1 2 cbr 500 ------- 0 1.0 4.0 241 241
+ 0.442 1 2 cbr 500 ------- 0 1.0 4.0 242 242
d 0.442 1 2 cbr 500 ------- 0 1.0 4.0 242 242
+ 0.443 1 2 cbr 500 ------- 0 1.0 4.0 243 243
d 0.443 1 2 cbr 500 ------- 0 1.0 4.0 243 243
+ 0.444 1 2 cbr 500 ------- 0 1.0 4.0 244 244
d 0.444 1 2 cbr 500 ------- 0 1.0 4.0 244 244
r 0.445 1 2 cbr 500 ------- 0 1.0 4.0 187 187
+ 0.445 2 3 cbr 500 ------- 0 1.0 4.0 187 187
+ 0.445 1 2 cbr 500 ------- 0 1.0 4.0 245 245
d 0.445 1 2 cbr 500 ------- 0 1.0 4.0 245 245
+ 0.446 1 2 cbr 500 ------- 0 1.0 4.0 246 246
d 0.446 1 2 cbr 500 ------- 0 1.0 4.0 246 246
+ 0.447 1 2 cbr 500 ------- 0 1.0 4.0 247 247
d 0.447 1 2 cbr 500 ------- 0 1.0 4.0 247 247
+ 0.448 1 2 cbr 500 ------- 0 1.0 4.0 248 248
d 0.448 1 2 cbr 500 ------- 0 1.0 4.0 248 248
+ 0.449 1 2 cbr 500 ------- 0 1.0 4.0 249 249
d 0.449 1 2 cbr 500 ------- 0 1.0 4.0 249 249
+ 0.45 1 2 cbr 500 ------- 0 1.0 4.0 250 250
d 0.45 1 2 cbr 500 ------- 0 1.0 4.0 250 250
+ 0.451 1 2 cbr 500 ------- 0 1.0 4.0 251 251
d 0.451 1 2 cbr 500 ------- 0 1.0 4.0 251 251
+ 0.452 1 2 cbr 500 ------- 0 1.0 4.0 252 252
d 0.452 1 2 cbr 500 ------- 0 1.0 4.0 252 252
+ 0.453 1 2 cbr 500 ------- 0 1.0 4.0 253 253
d 0.453 1 2 cbr 500 ------- 0 1.0 4.0 253 253
+ 0.454 1 2 cbr 500 ------- 0 1.0 4.0 254 254
d 0.454 1 2 cbr 500 ------- 0 1.0 4.0 254 254
+ 0.455 1 2 cbr 500 ------- 0 1.0 4.0 255 255
d 0.455 1 2 cbr 500 ------- 0 1.0 4.0 255 255
+ 0.456 1 2 cbr 500 ------- 0 1.0 4.0 256 256
d 0.456 1 2 cbr 500 ------- 0 1.0 4.0 256 256
+ 0.457 1 2 cbr 500 ------- 0 1.0 4.0 257 257
d 0.457 1 2 cbr 500 ------- 0 1.0 4.0 257 257
+ 0.458 1 2 cbr 500 ------- 0 1.0 4.0 258 258
d 0.458 1 2 cbr 500 ------- 0 1.0 4.0 258 258
+ 0.459 1 2 cbr 500 ------- 0 1.0 4.0 259 259
d 0.459 1 2 cbr 500 ------- 0 1.0 4.0 259 259
+ 0.46 1 2 cbr 500 ------- 0 1.0 4.0 260 260
d 0.46 1 2 cbr 500 ------- 0 1.0 4.0 260 260
+ 0.461 1 2 cbr 500 ------- 0 1.0 4.0 261 261
d 0.461 1 2 cbr 500 ------- 0 1.0 4.0 261 261
+ 0.462 1 2 cbr 500 ------- 0 1.0 4.0 262 262
d 0.462 1 2 cbr 500 ------- 0 1.0 4.0 262 262
+ 0.463 1 2 cbr 500 ------- 0 1.0 4.0 263 263
d 0.463 1 2 cbr 500 ------- 0 1.0 4.0 263 263
+ 0.464 1 2 cbr 500 ------- 0 1.0 4.0 264 264
d 0.464 1 2 cbr 500 ------- 0 1.0 4.0 264 264
+ 0.465 1 2 cbr 500 ------- 0 1.0 4.0 265 265
d 0.465 1 2 cbr 500 ------- 0 1.0 4.0 265 265
+ 0.466 1 2 cbr 500 ------- 0 1.0 4.0 266 266
d 0.466 1 2 cbr 500 ------- 0 1.0 4.0 266 266
- 0.466667 1 2 cbr 500 ------- 0 1.0 4.0 240 240
+ 0.467 1 2 cbr 500 ------- 0 1.0 4.0 267 267
+ 0.468 1 2 cbr 500 ------- 0 1.0 4.0 268 268
d 0.468 1 2 cbr 500 ------- 0 1.0 4.0 268 268
+ 0.469 1 2 cbr 500 ------- 0 1.0 4.0 269 269
d 0.469 1 2 cbr 500 ------- 0 1.0 4.0 269 269
+ 0.47 1 2 cbr 500 ------- 0 1.0 4.0 270 270
d 0.47 1 2 cbr 500 ------- 0 1.0 4.0 270 270
+ 0.471 1 2 cbr 500 ------- 0 1.0 4.0 271 271
d 0.471 1 2 cbr 500 ------- 0 1.0 4.0 271 271
- 0.471667 2 3 cbr 500 ------- 0 1.0 4.0 187 187
r 0.471667 1 2 cbr 500 ------- 0 1.0 4.0 214 214
+ 0.471667 2 3 cbr 500 ------- 0 1.0 4.0 214 214
+ 0.472 1 2 cbr 500 ------- 0 1.0 4.0 272 272
d 0.472 1 2 cbr 500 ------- 0 1.0 4.0 272 272
+ 0.473 1 2 cbr 500 ------- 0 1.0 4.0 273 273
d 0.473 1 2 cbr 500 ------- 0 1.0 4.0 273 273
+ 0.474 1 2 cbr 500 ------- 0 1.0 4.0 274 274
d 0.474 1 2 cbr 500 ------- 0 1.0 4.0 274 274
r 0.475 3 4 cbr 500 ------- 0 1.0 4.0 107 107
+ 0.475 1 2 cbr 500 ------- 0 1.0 4.0 275 275
d 0.475 1 2 cbr 500 ------- 0 1.0 4.0 275 275
+ 0.476 1 2 cbr 500 ------- 0 1.0 4.0 276 276
d 0.476 1 2 cbr 500 ------- 0 1.0 4.0 276 276
r 0.476667 2 3 cbr 500 ------- 0 1.0 4.0 134 134
+ 0.476667 3 4 cbr 500 ------- 0 1.0 4.0 134 134
- 0.476667 3 4 cbr 500 ------- 0 1.0 4.0 134 134
+ 0.477 1 2 cbr 500 ------- 0 1.0 4.0 277 277
d 0.477 1 2 cbr 500 ------- 0 1.0 4.0 277 277
+ 0.478 1 2 cbr 500 ------- 0 1.0 4.0 278 278
d 0.478 1 2 cbr 500 ------- 0 1.0 4.0 278 278
+ 0.479 1 2 cbr 500 ------- 0 1.0 4.0 279 279
d 0.479 1 2 cbr 500 ------- 0 1.0 4.0 279 279
+ 0.48 1 2 cbr 500 ------- 0 1.0 4.0 280 280
d 0.48 1 2 cbr 500 ------- 0 1.0 4.0 280 280
+ 0.481 1 2 cbr 500 ------- 0 1.0 4.0 281 281
d 0.481 1 2 cbr 500 ------- 0 1.0 4.0 281 281
+ 0.482 1 2 cbr 500 ------- 0 1.0 4.0 282 282
d 0.482 1 2 cbr 500 ------- 0 1.0 4.0 282 282
+ 0.483 1 2 cbr 500 ------- 0 1.0 4.0 283 283
d 0.483 1 2 cbr 500 ------- 0 1.0 4.0 283 283
+ 0.484 1 2 cbr 500 ------- 0 1.0 4.0 284 284
d 0.484 1 2 cbr 500 ------- 0 1.0 4.0 284 284
+ 0.485 1 2 cbr 500 ------- 0 1.0 4.0 285 285
d 0.485 1 2 cbr 500 ------- 0 1.0 4.0 285 285
+ 0.486 1 2 cbr 500 ------- 0 1.0 4.0 286 286
d 0.486 1 2 cbr 500 ------- 0 1.0 4.0 286 286
+ 0.487 1 2 cbr 500 ------- 0 1.0 4.0 287 287
d 0.487 1 2 cbr 500 ------- 0 1.0 4.0 287 287
+ 0.488 1 2 cbr 500 ------- 0 1.0 4.0 288 288
d 0.488 1 2 cbr 500 ------- 0 1.0 4.0 288 288
+ 0.489 1 2 cbr 500 ------- 0 1.0 4.0 289 289
d 0.489 1 2 cbr 500 ------- 0 1.0 4.0 289 289
+ 0.49 1 2 cbr 500 ------- 0 1.0 4.0 290 290
d 0.49 1 2 cbr 500 ------- 0 1.0 4.0 290 290
+ 0.491 1 2 cbr 500 ------- 0 1.0 4.0 291 291
d 0.491 1 2 cbr 500 ------- 0 1.0 4.0 291 291
+ 0.492 1 2 cbr 500 ------- 0 1.0 4.0 292 292
d 0.492 1 2 cbr 500 ------- 0 1.0 4.0 292 292
+ 0.493 1 2 cbr 500 ------- 0 1.0 4.0 293 293
d 0.493 1 2 cbr 500 ------- 0 1.0 4.0 293 293
- 0.493333 1 2 cbr 500 ------- 0 1.0 4.0 267 267
+ 0.494 1 2 cbr 500 ------- 0 1.0 4.0 294 294
+ 0.495 1 2 cbr 500 ------- 0 1.0 4.0 295 295
d 0.495 1 2 cbr 500 ------- 0 1.0 4.0 295 295
+ 0.496 1 2 cbr 500 ------- 0 1.0 4.0 296 296
d 0.496 1 2 cbr 500 ------- 0 1.0 4.0 296 296
+ 0.497 1 2 cbr 500 ------- 0 1.0 4.0 297 297
d 0.497 1 2 cbr 500 ------- 0 1.0 4.0 297 297
+ 0.498 1 2 cbr 500 ------- 0 1.0 4.0 298 298
d 0.498 1 2 cbr 500 ------- 0 1.0 4.0 298 298
r 0.498333 1 2 cbr 500 ------- 0 1.0 4.0 240 240
+ 0.498333 2 3 cbr 500 ------- 0 1.0 4.0 240 240
d 0.498333 2 3 cbr 500 ------- 0 1.0 4.0 240 240
+ 0.499 1 2 cbr 500 ------- 0 1.0 4.0 299 299
d 0.499 1 2 cbr 500 ------- 0 1.0 4.0 299 299
+ 0.5 1 2 cbr 500 ------- 0 1.0 4.0 300 300
d 0.5 1 2 cbr 500 ------- 0 1.0 4.0 300 300
+ 0.501 1 2 cbr 500 ------- 0 1.0 4.0 301 301
d 0.501 1 2 cbr 500 ------- 0 1.0 4.0 301 301
+ 0.502 1 2 cbr 500 ------- 0 1.0 4.0 302 302
d 0.502 1 2 cbr 500 ------- 0 1.0 4.0 302 302
+ 0.503 1 2 cbr 500 ------- 0 1.0 4.0 303 303